TITLE = "LBM Simulation"
VARIABLES = "X", "Y", "rho", "u", "v"
ZONE T="Zone 0", I=600, J=200, F=POINT
0 0 1.0240420280483722 0.0741746626321475 0.011053266004562426
1 0 1.0023658894915237 0.09740366420290283 -0.0009523140912905712
2 0 0.9989637261271758 0.10114108373536833 0.0009389073864050239
3 0 1.0017712092352773 0.09805511464010601 0.00015522902276645506
4 0 0.9996464124297478 0.10038908390250913 -0.0014217678406768187
5 0 0.9985318198965055 0.10161737270827419 -0.001470338825703791
6 0 1.0 0.1 0.0
7 0 1.0 0.1 0.0
8 0 1.0 0.1 0.0
9 0 1.0 0.1 0.0
10 0 1.0 0.1 0.0
11 0 1.0 0.1 0.0
12 0 1.0 0.1 0.0
13 0 1.0 0.1 0.0
14 0 1.0 0.1 0.0
15 0 1.0 0.1 0.0
16 0 1.0 0.1 0.0
17 0 1.0 0.1 0.0
18 0 1.0 0.1 0.0
19 0 1.0 0.1 0.0
20 0 1.0 0.1 0.0
21 0 1.0 0.1 0.0
22 0 1.0 0.1 0.0
23 0 1.0 0.1 0.0
24 0 1.0 0.1 0.0
25 0 1.0 0.1 0.0
26 0 1.0 0.1 0.0
27 0 1.0 0.1 0.0
28 0 1.0 0.1 0.0
29 0 1.0 0.1 0.0
30 0 1.0 0.1 0.0
31 0 1.0 0.1 0.0
32 0 1.0 0.1 0.0
33 0 1.0 0.1 0.0
34 0 1.0 0.1 0.0
35 0 1.0 0.1 0.0
36 0 1.0 0.1 0.0
37 0 1.0 0.1 0.0
38 0 1.0 0.1 0.0
39 0 1.0 0.1 0.0
40 0 1.0 0.1 0.0
41 0 1.0 0.1 0.0
42 0 1.0 0.1 0.0
43 0 1.0 0.1 0.0
44 0 1.0 0.1 0.0
45 0 1.0 0.1 0.0
46 0 1.0 0.1 0.0
47 0 1.0 0.1 0.0
48 0 1.0 0.1 0.0
49 0 1.0 0.1 0.0
50 0 1.0 0.1 0.0
51 0 1.0 0.1 0.0
52 0 1.0 0.1 0.0
53 0 1.0 0.1 0.0
54 0 1.0 0.1 0.0
55 0 1.0 0.1 0.0
56 0 1.0 0.1 0.0
57 0 1.0 0.1 0.0
58 0 1.0 0.1 0.0
59 0 1.0 0.1 0.0
60 0 1.0 0.1 0.0
61 0 1.0 0.1 0.0
62 0 1.0 0.1 0.0
63 0 1.0 0.1 0.0
64 0 1.0 0.1 0.0
65 0 1.0 0.1 0.0
66 0 1.0 0.1 0.0
67 0 1.0 0.1 0.0
68 0 1.0 0.1 0.0
69 0 1.0 0.1 0.0
70 0 1.0 0.1 0.0
71 0 1.0 0.1 0.0
72 0 1.0 0.1 0.0
73 0 1.0 0.1 0.0
74 0 1.0 0.1 0.0
75 0 1.0 0.1 0.0
76 0 1.0 0.1 0.0
77 0 1.0 0.1 0.0
78 0 1.0 0.1 0.0
79 0 1.0 0.1 0.0
80 0 1.0 0.1 0.0
81 0 1.0 0.1 0.0
82 0 1.0 0.1 0.0
83 0 1.0 0.1 0.0
84 0 1.0 0.1 0.0
85 0 1.0 0.1 0.0
86 0 1.0 0.1 0.0
87 0 1.0 0.1 0.0
88 0 1.0 0.1 0.0
89 0 1.0 0.1 0.0
90 0 1.0 0.1 0.0
91 0 1.0 0.1 0.0
92 0 1.0 0.1 0.0
93 0 1.0 0.1 0.0
94 0 1.0 0.1 0.0
95 0 1.0 0.1 0.0
96 0 1.0 0.1 0.0
97 0 1.0 0.1 0.0
98 0 1.0 0.1 0.0
99 0 1.0 0.1 0.0
100 0 1.0 0.1 0.0
101 0 1.0 0.1 0.0
102 0 1.0 0.1 0.0
103 0 1.0 0.1 0.0
104 0 1.0 0.1 0.0
105 0 1.0 0.1 0.0
106 0 1.0 0.1 0.0
107 0 1.0 0.1 0.0
108 0 1.0 0.1 0.0
109 0 1.0 0.1 0.0
110 0 1.0 0.1 0.0
111 0 1.0 0.1 0.0
112 0 1.0 0.1 0.0
113 0 1.0 0.1 0.0
114 0 1.0 0.1 0.0
115 0 1.0 0.1 0.0
116 0 1.0 0.1 0.0
117 0 1.0 0.1 0.0
118 0 1.0 0.1 0.0
119 0 1.0 0.1 0.0
120 0 1.0 0.1 0.0
121 0 1.0 0.1 0.0
122 0 1.0 0.1 0.0
123 0 1.0 0.1 0.0
124 0 1.0 0.1 0.0
125 0 1.0 0.1 0.0
126 0 1.0 0.1 0.0
127 0 1.0 0.1 0.0
128 0 1.0 0.1 0.0
129 0 1.0 0.1 0.0
130 0 1.0 0.1 0.0
131 0 1.0 0.1 0.0
132 0 1.0 0.1 0.0
133 0 1.0 0.1 0.0
134 0 1.0 0.1 0.0
135 0 1.0 0.1 0.0
136 0 1.0 0.1 0.0
137 0 1.0 0.1 0.0
138 0 1.0 0.1 0.0
139 0 1.0 0.1 0.0
140 0 1.0 0.1 0.0
141 0 1.0 0.1 0.0
142 0 1.0 0.1 0.0
143 0 1.0 0.1 0.0
144 0 1.0 0.1 0.0
145 0 1.0 0.1 0.0
146 0 1.0 0.1 0.0
147 0 1.0 0.1 0.0
148 0 1.0 0.1 0.0
149 0 1.0 0.1 0.0
150 0 1.0 0.1 0.0
151 0 1.0 0.1 0.0
152 0 1.0 0.1 0.0
153 0 1.0 0.1 0.0
154 0 1.0 0.1 0.0
155 0 1.0 0.1 0.0
156 0 1.0 0.1 0.0
157 0 1.0 0.1 0.0
158 0 1.0 0.1 0.0
159 0 1.0 0.1 0.0
160 0 1.0 0.1 0.0
161 0 1.0 0.1 0.0
162 0 1.0 0.1 0.0
163 0 1.0 0.1 0.0
164 0 1.0 0.1 0.0
165 0 1.0 0.1 0.0
166 0 1.0 0.1 0.0
167 0 1.0 0.1 0.0
168 0 1.0 0.1 0.0
169 0 1.0 0.1 0.0
170 0 1.0 0.1 0.0
171 0 1.0 0.1 0.0
172 0 1.0 0.1 0.0
173 0 1.0 0.1 0.0
174 0 1.0 0.1 0.0
175 0 1.0 0.1 0.0
176 0 1.0 0.1 0.0
177 0 1.0 0.1 0.0
178 0 1.0 0.1 0.0
179 0 1.0 0.1 0.0
180 0 1.0 0.1 0.0
181 0 1.0 0.1 0.0
182 0 1.0 0.1 0.0
183 0 1.0 0.1 0.0
184 0 1.0 0.1 0.0
185 0 1.0 0.1 0.0
186 0 1.0 0.1 0.0
187 0 1.0 0.1 0.0
188 0 1.0 0.1 0.0
189 0 1.0 0.1 0.0
190 0 1.0 0.1 0.0
191 0 1.0 0.1 0.0
192 0 1.0 0.1 0.0
193 0 1.0 0.1 0.0
194 0 1.0 0.1 0.0
195 0 1.0 0.1 0.0
196 0 1.0 0.1 0.0
197 0 1.0 0.1 0.0
198 0 1.0 0.1 0.0
199 0 1.0 0.1 0.0
200 0 1.0 0.1 0.0
201 0 1.0 0.1 0.0
202 0 1.0 0.1 0.0
203 0 1.0 0.1 0.0
204 0 1.0 0.1 0.0
205 0 1.0 0.1 0.0
206 0 1.0 0.1 0.0
207 0 1.0 0.1 0.0
208 0 1.0 0.1 0.0
209 0 1.0 0.1 0.0
210 0 1.0 0.1 0.0
211 0 1.0 0.1 0.0
212 0 1.0 0.1 0.0
213 0 1.0 0.1 0.0
214 0 1.0 0.1 0.0
215 0 1.0 0.1 0.0
216 0 1.0 0.1 0.0
217 0 1.0 0.1 0.0
218 0 1.0 0.1 0.0
219 0 1.0 0.1 0.0
220 0 1.0 0.1 0.0
221 0 1.0 0.1 0.0
222 0 1.0 0.1 0.0
223 0 1.0 0.1 0.0
224 0 1.0 0.1 0.0
225 0 1.0 0.1 0.0
226 0 1.0 0.1 0.0
227 0 1.0 0.1 0.0
228 0 1.0 0.1 0.0
229 0 1.0 0.1 0.0
230 0 1.0 0.1 0.0
231 0 1.0 0.1 0.0
232 0 1.0 0.1 0.0
233 0 1.0 0.1 0.0
234 0 1.0 0.1 0.0
235 0 1.0 0.1 0.0
236 0 1.0 0.1 0.0
237 0 1.0 0.1 0.0
238 0 1.0 0.1 0.0
239 0 1.0 0.1 0.0
240 0 1.0 0.1 0.0
241 0 1.0 0.1 0.0
242 0 1.0 0.1 0.0
243 0 1.0 0.1 0.0
244 0 1.0 0.1 0.0
245 0 1.0 0.1 0.0
246 0 1.0 0.1 0.0
247 0 1.0 0.1 0.0
248 0 1.0 0.1 0.0
249 0 1.0 0.1 0.0
250 0 1.0 0.1 0.0
251 0 1.0 0.1 0.0
252 0 1.0 0.1 0.0
253 0 1.0 0.1 0.0
254 0 1.0 0.1 0.0
255 0 1.0 0.1 0.0
256 0 1.0 0.1 0.0
257 0 1.0 0.1 0.0
258 0 1.0 0.1 0.0
259 0 1.0 0.1 0.0
260 0 1.0 0.1 0.0
261 0 1.0 0.1 0.0
262 0 1.0 0.1 0.0
263 0 1.0 0.1 0.0
264 0 1.0 0.1 0.0
265 0 1.0 0.1 0.0
266 0 1.0 0.1 0.0
267 0 1.0 0.1 0.0
268 0 1.0 0.1 0.0
269 0 1.0 0.1 0.0
270 0 1.0 0.1 0.0
271 0 1.0 0.1 0.0
272 0 1.0 0.1 0.0
273 0 1.0 0.1 0.0
274 0 1.0 0.1 0.0
275 0 1.0 0.1 0.0
276 0 1.0 0.1 0.0
277 0 1.0 0.1 0.0
278 0 1.0 0.1 0.0
279 0 1.0 0.1 0.0
280 0 1.0 0.1 0.0
281 0 1.0 0.1 0.0
282 0 1.0 0.1 0.0
283 0 1.0 0.1 0.0
284 0 1.0 0.1 0.0
285 0 1.0 0.1 0.0
286 0 1.0 0.1 0.0
287 0 1.0 0.1 0.0
288 0 1.0 0.1 0.0
289 0 1.0 0.1 0.0
290 0 1.0 0.1 0.0
291 0 1.0 0.1 0.0
292 0 1.0 0.1 0.0
293 0 1.0 0.1 0.0
294 0 1.0 0.1 0.0
295 0 1.0 0.1 0.0
296 0 1.0 0.1 0.0
297 0 1.0 0.1 0.0
298 0 1.0 0.1 0.0
299 0 1.0 0.1 0.0
300 0 1.0 0.1 0.0
301 0 1.0 0.1 0.0
302 0 1.0 0.1 0.0
303 0 1.0 0.1 0.0
304 0 1.0 0.1 0.0
305 0 1.0 0.1 0.0
306 0 1.0 0.1 0.0
307 0 1.0 0.1 0.0
308 0 1.0 0.1 0.0
309 0 1.0 0.1 0.0
310 0 1.0 0.1 0.0
311 0 1.0 0.1 0.0
312 0 1.0 0.1 0.0
313 0 1.0 0.1 0.0
314 0 1.0 0.1 0.0
315 0 1.0 0.1 0.0
316 0 1.0 0.1 0.0
317 0 1.0 0.1 0.0
318 0 1.0 0.1 0.0
319 0 1.0 0.1 0.0
320 0 1.0 0.1 0.0
321 0 1.0 0.1 0.0
322 0 1.0 0.1 0.0
323 0 1.0 0.1 0.0
324 0 1.0 0.1 0.0
325 0 1.0 0.1 0.0
326 0 1.0 0.1 0.0
327 0 1.0 0.1 0.0
328 0 1.0 0.1 0.0
329 0 1.0 0.1 0.0
330 0 1.0 0.1 0.0
331 0 1.0 0.1 0.0
332 0 1.0 0.1 0.0
333 0 1.0 0.1 0.0
334 0 1.0 0.1 0.0
335 0 1.0 0.1 0.0
336 0 1.0 0.1 0.0
337 0 1.0 0.1 0.0
338 0 1.0 0.1 0.0
339 0 1.0 0.1 0.0
340 0 1.0 0.1 0.0
341 0 1.0 0.1 0.0
342 0 1.0 0.1 0.0
343 0 1.0 0.1 0.0
344 0 1.0 0.1 0.0
345 0 1.0 0.1 0.0
346 0 1.0 0.1 0.0
347 0 1.0 0.1 0.0
348 0 1.0 0.1 0.0
349 0 1.0 0.1 0.0
350 0 1.0 0.1 0.0
351 0 1.0 0.1 0.0
352 0 1.0 0.1 0.0
353 0 1.0 0.1 0.0
354 0 1.0 0.1 0.0
355 0 1.0 0.1 0.0
356 0 1.0 0.1 0.0
357 0 1.0 0.1 0.0
358 0 1.0 0.1 0.0
359 0 1.0 0.1 0.0
360 0 1.0 0.1 0.0
361 0 1.0 0.1 0.0
362 0 1.0 0.1 0.0
363 0 1.0 0.1 0.0
364 0 1.0 0.1 0.0
365 0 1.0 0.1 0.0
366 0 1.0 0.1 0.0
367 0 1.0 0.1 0.0
368 0 1.0 0.1 0.0
369 0 1.0 0.1 0.0
370 0 1.0 0.1 0.0
371 0 1.0 0.1 0.0
372 0 1.0 0.1 0.0
373 0 1.0 0.1 0.0
374 0 1.0 0.1 0.0
375 0 1.0 0.1 0.0
376 0 1.0 0.1 0.0
377 0 1.0 0.1 0.0
378 0 1.0 0.1 0.0
379 0 1.0 0.1 0.0
380 0 1.0 0.1 0.0
381 0 1.0 0.1 0.0
382 0 1.0 0.1 0.0
383 0 1.0 0.1 0.0
384 0 1.0 0.1 0.0
385 0 1.0 0.1 0.0
386 0 1.0 0.1 0.0
387 0 1.0 0.1 0.0
388 0 1.0 0.1 0.0
389 0 1.0 0.1 0.0
390 0 1.0 0.1 0.0
391 0 1.0 0.1 0.0
392 0 1.0 0.1 0.0
393 0 1.0 0.1 0.0
394 0 1.0 0.1 0.0
395 0 1.0 0.1 0.0
396 0 1.0 0.1 0.0
397 0 1.0 0.1 0.0
398 0 1.0 0.1 0.0
399 0 1.0 0.1 0.0
400 0 1.0 0.1 0.0
401 0 1.0 0.1 0.0
402 0 1.0 0.1 0.0
403 0 1.0 0.1 0.0
404 0 1.0 0.1 0.0
405 0 1.0 0.1 0.0
406 0 1.0 0.1 0.0
407 0 1.0 0.1 0.0
408 0 1.0 0.1 0.0
409 0 1.0 0.1 0.0
410 0 1.0 0.1 0.0
411 0 1.0 0.1 0.0
412 0 1.0 0.1 0.0
413 0 1.0 0.1 0.0
414 0 1.0 0.1 0.0
415 0 1.0 0.1 0.0
416 0 1.0 0.1 0.0
417 0 1.0 0.1 0.0
418 0 1.0 0.1 0.0
419 0 1.0 0.1 0.0
420 0 1.0 0.1 0.0
421 0 1.0 0.1 0.0
422 0 1.0 0.1 0.0
423 0 1.0 0.1 0.0
424 0 1.0 0.1 0.0
425 0 1.0 0.1 0.0
426 0 1.0 0.1 0.0
427 0 1.0 0.1 0.0
428 0 1.0 0.1 0.0
429 0 1.0 0.1 0.0
430 0 1.0 0.1 0.0
431 0 1.0 0.1 0.0
432 0 1.0 0.1 0.0
433 0 1.0 0.1 0.0
434 0 1.0 0.1 0.0
435 0 1.0 0.1 0.0
436 0 1.0 0.1 0.0
437 0 1.0 0.1 0.0
438 0 1.0 0.1 0.0
439 0 1.0 0.1 0.0
440 0 1.0 0.1 0.0
441 0 1.0 0.1 0.0
442 0 1.0 0.1 0.0
443 0 1.0 0.1 0.0
444 0 1.0 0.1 0.0
445 0 1.0 0.1 0.0
446 0 1.0 0.1 0.0
447 0 1.0 0.1 0.0
448 0 1.0 0.1 0.0
449 0 1.0 0.1 0.0
450 0 1.0 0.1 0.0
451 0 1.0 0.1 0.0
452 0 1.0 0.1 0.0
453 0 1.0 0.1 0.0
454 0 1.0 0.1 0.0
455 0 1.0 0.1 0.0
456 0 1.0 0.1 0.0
457 0 1.0 0.1 0.0
458 0 1.0 0.1 0.0
459 0 1.0 0.1 0.0
460 0 1.0 0.1 0.0
461 0 1.0 0.1 0.0
462 0 1.0 0.1 0.0
463 0 1.0 0.1 0.0
464 0 1.0 0.1 0.0
465 0 1.0 0.1 0.0
466 0 1.0 0.1 0.0
467 0 1.0 0.1 0.0
468 0 1.0 0.1 0.0
469 0 1.0 0.1 0.0
470 0 1.0 0.1 0.0
471 0 1.0 0.1 0.0
472 0 1.0 0.1 0.0
473 0 1.0 0.1 0.0
474 0 1.0 0.1 0.0
475 0 1.0 0.1 0.0
476 0 1.0 0.1 0.0
477 0 1.0 0.1 0.0
478 0 1.0 0.1 0.0
479 0 1.0 0.1 0.0
480 0 1.0 0.1 0.0
481 0 1.0 0.1 0.0
482 0 1.0 0.1 0.0
483 0 1.0 0.1 0.0
484 0 1.0 0.1 0.0
485 0 1.0 0.1 0.0
486 0 1.0 0.1 0.0
487 0 1.0 0.1 0.0
488 0 1.0 0.1 0.0
489 0 1.0 0.1 0.0
490 0 1.0 0.1 0.0
491 0 1.0 0.1 0.0
492 0 1.0 0.1 0.0
493 0 1.0 0.1 0.0
494 0 1.0 0.1 0.0
495 0 1.0 0.1 0.0
496 0 1.0 0.1 0.0
497 0 1.0 0.1 0.0
498 0 1.0 0.1 0.0
499 0 1.0 0.1 0.0
500 0 1.0 0.1 0.0
501 0 1.0 0.1 0.0
502 0 1.0 0.1 0.0
503 0 1.0 0.1 0.0
504 0 1.0 0.1 0.0
505 0 1.0 0.1 0.0
506 0 1.0 0.1 0.0
507 0 1.0 0.1 0.0
508 0 1.0 0.1 0.0
509 0 1.0 0.1 0.0
510 0 1.0 0.1 0.0
511 0 1.0 0.1 0.0
512 0 1.0 0.1 0.0
513 0 1.0 0.1 0.0
514 0 1.0 0.1 0.0
515 0 1.0 0.1 0.0
516 0 1.0 0.1 0.0
517 0 1.0 0.1 0.0
518 0 1.0 0.1 0.0
519 0 1.0 0.1 0.0
520 0 1.0 0.1 0.0
521 0 1.0 0.1 0.0
522 0 1.0 0.1 0.0
523 0 1.0 0.1 0.0
524 0 1.0 0.1 0.0
525 0 1.0 0.1 0.0
526 0 1.0 0.1 0.0
527 0 1.0 0.1 0.0
528 0 1.0 0.1 0.0
529 0 1.0 0.1 0.0
530 0 1.0 0.1 0.0
531 0 1.0 0.1 0.0
532 0 1.0 0.1 0.0
533 0 1.0 0.1 0.0
534 0 1.0 0.1 0.0
535 0 1.0 0.1 0.0
536 0 1.0 0.1 0.0
537 0 1.0 0.1 0.0
538 0 1.0 0.1 0.0
539 0 1.0 0.1 0.0
540 0 1.0 0.1 0.0
541 0 1.0 0.1 0.0
542 0 1.0 0.1 0.0
543 0 1.0 0.1 0.0
544 0 1.0 0.1 0.0
545 0 1.0 0.1 0.0
546 0 1.0 0.1 0.0
547 0 1.0 0.1 0.0
548 0 1.0 0.1 0.0
549 0 1.0 0.1 0.0
550 0 1.0 0.1 0.0
551 0 1.0 0.1 0.0
552 0 1.0 0.1 0.0
553 0 1.0 0.1 0.0
554 0 1.0 0.1 0.0
555 0 1.0 0.1 0.0
556 0 1.0 0.1 0.0
557 0 1.0 0.1 0.0
558 0 1.0 0.1 0.0
559 0 1.0 0.1 0.0
560 0 1.0 0.1 0.0
561 0 1.0 0.1 0.0
562 0 1.0 0.1 0.0
563 0 1.0 0.1 0.0
564 0 1.0 0.1 0.0
565 0 1.0 0.1 0.0
566 0 1.0 0.1 0.0
567 0 1.0 0.1 0.0
568 0 1.0 0.1 0.0
569 0 1.0 0.1 0.0
570 0 1.0 0.1 0.0
571 0 1.0 0.1 0.0
572 0 1.0 0.1 0.0
573 0 1.0 0.1 0.0
574 0 1.0 0.1 0.0
575 0 1.0 0.1 0.0
576 0 1.0 0.1 0.0
577 0 1.0 0.1 0.0
578 0 1.0 0.1 0.0
579 0 1.0 0.1 0.0
580 0 1.0 0.1 0.0
581 0 1.0 0.1 0.0
582 0 1.0 0.1 0.0
583 0 1.0 0.1 0.0
584 0 1.0 0.1 0.0
585 0 1.0 0.1 0.0
586 0 1.0 0.1 0.0
587 0 1.0 0.1 0.0
588 0 1.0 0.1 0.0
589 0 1.0 0.1 0.0
590 0 1.0 0.1 0.0
591 0 1.0 0.1 0.0
592 0 1.0 0.1 0.0
593 0 1.0 0.1 0.0
594 0 0.9985318198965055 0.10161737270827419 0.001470338825703791
595 0 0.9996464124297478 0.10038908390250913 0.0014217678406768257
596 0 1.0017712092352773 0.09805511464010604 -0.00015522902276646891
597 0 0.9989637261271759 0.10114108373536826 -0.0009389073864050168
598 0 1.0023658894915237 0.09740366420290288 0.0009523140912905989
599 0 1.024042028048372 0.07417466263214761 -0.011053266004562414
0 1 0.9984336814291579 0.0576893760921722 0.00034264898438289803
1 1 1.010057339649913 0.09794845352915087 0.0005700368659125907
2 1 0.9981511110657523 0.10210715071849288 0.0011887408870878795
3 1 1.0022321820198967 0.09690535159758869 -0.0008177199719159906
4 1 1.000186607016687 0.09978455022730431 0.0006037445009989508
5 1 1.0002811430476992 0.10160474024392724 0.00028106402850172884
6 1 1.0 0.1 0.0
7 1 1.0 0.1 0.0
8 1 1.0 0.1 0.0
9 1 1.0 0.1 0.0
10 1 1.0 0.1 0.0
11 1 1.0 0.1 0.0
12 1 1.0 0.1 0.0
13 1 1.0 0.1 0.0
14 1 1.0 0.1 0.0
15 1 1.0 0.1 0.0
16 1 1.0 0.1 0.0
17 1 1.0 0.1 0.0
18 1 1.0 0.1 0.0
19 1 1.0 0.1 0.0
20 1 1.0 0.1 0.0
21 1 1.0 0.1 0.0
22 1 1.0 0.1 0.0
23 1 1.0 0.1 0.0
24 1 1.0 0.1 0.0
25 1 1.0 0.1 0.0
26 1 1.0 0.1 0.0
27 1 1.0 0.1 0.0
28 1 1.0 0.1 0.0
29 1 1.0 0.1 0.0
30 1 1.0 0.1 0.0
31 1 1.0 0.1 0.0
32 1 1.0 0.1 0.0
33 1 1.0 0.1 0.0
34 1 1.0 0.1 0.0
35 1 1.0 0.1 0.0
36 1 1.0 0.1 0.0
37 1 1.0 0.1 0.0
38 1 1.0 0.1 0.0
39 1 1.0 0.1 0.0
40 1 1.0 0.1 0.0
41 1 1.0 0.1 0.0
42 1 1.0 0.1 0.0
43 1 1.0 0.1 0.0
44 1 1.0 0.1 0.0
45 1 1.0 0.1 0.0
46 1 1.0 0.1 0.0
47 1 1.0 0.1 0.0
48 1 1.0 0.1 0.0
49 1 1.0 0.1 0.0
50 1 1.0 0.1 0.0
51 1 1.0 0.1 0.0
52 1 1.0 0.1 0.0
53 1 1.0 0.1 0.0
54 1 1.0 0.1 0.0
55 1 1.0 0.1 0.0
56 1 1.0 0.1 0.0
57 1 1.0 0.1 0.0
58 1 1.0 0.1 0.0
59 1 1.0 0.1 0.0
60 1 1.0 0.1 0.0
61 1 1.0 0.1 0.0
62 1 1.0 0.1 0.0
63 1 1.0 0.1 0.0
64 1 1.0 0.1 0.0
65 1 1.0 0.1 0.0
66 1 1.0 0.1 0.0
67 1 1.0 0.1 0.0
68 1 1.0 0.1 0.0
69 1 1.0 0.1 0.0
70 1 1.0 0.1 0.0
71 1 1.0 0.1 0.0
72 1 1.0 0.1 0.0
73 1 1.0 0.1 0.0
74 1 1.0 0.1 0.0
75 1 1.0 0.1 0.0
76 1 1.0 0.1 0.0
77 1 1.0 0.1 0.0
78 1 1.0 0.1 0.0
79 1 1.0 0.1 0.0
80 1 1.0 0.1 0.0
81 1 1.0 0.1 0.0
82 1 1.0 0.1 0.0
83 1 1.0 0.1 0.0
84 1 1.0 0.1 0.0
85 1 1.0 0.1 0.0
86 1 1.0 0.1 0.0
87 1 1.0 0.1 0.0
88 1 1.0 0.1 0.0
89 1 1.0 0.1 0.0
90 1 1.0 0.1 0.0
91 1 1.0 0.1 0.0
92 1 1.0 0.1 0.0
93 1 1.0 0.1 0.0
94 1 1.0 0.1 0.0
95 1 1.0 0.1 0.0
96 1 1.0 0.1 0.0
97 1 1.0 0.1 0.0
98 1 1.0 0.1 0.0
99 1 1.0 0.1 0.0
100 1 1.0 0.1 0.0
101 1 1.0 0.1 0.0
102 1 1.0 0.1 0.0
103 1 1.0 0.1 0.0
104 1 1.0 0.1 0.0
105 1 1.0 0.1 0.0
106 1 1.0 0.1 0.0
107 1 1.0 0.1 0.0
108 1 1.0 0.1 0.0
109 1 1.0 0.1 0.0
110 1 1.0 0.1 0.0
111 1 1.0 0.1 0.0
112 1 1.0 0.1 0.0
113 1 1.0 0.1 0.0
114 1 1.0 0.1 0.0
115 1 1.0 0.1 0.0
116 1 1.0 0.1 0.0
117 1 1.0 0.1 0.0
118 1 1.0 0.1 0.0
119 1 1.0 0.1 0.0
120 1 1.0 0.1 0.0
121 1 1.0 0.1 0.0
122 1 1.0 0.1 0.0
123 1 1.0 0.1 0.0
124 1 1.0 0.1 0.0
125 1 1.0 0.1 0.0
126 1 1.0 0.1 0.0
127 1 1.0 0.1 0.0
128 1 1.0 0.1 0.0
129 1 1.0 0.1 0.0
130 1 1.0 0.1 0.0
131 1 1.0 0.1 0.0
132 1 1.0 0.1 0.0
133 1 1.0 0.1 0.0
134 1 1.0 0.1 0.0
135 1 1.0 0.1 0.0
136 1 1.0 0.1 0.0
137 1 1.0 0.1 0.0
138 1 1.0 0.1 0.0
139 1 1.0 0.1 0.0
140 1 1.0 0.1 0.0
141 1 1.0 0.1 0.0
142 1 1.0 0.1 0.0
143 1 1.0 0.1 0.0
144 1 1.0 0.1 0.0
145 1 1.0 0.1 0.0
146 1 1.0 0.1 0.0
147 1 1.0 0.1 0.0
148 1 1.0 0.1 0.0
149 1 1.0 0.1 0.0
150 1 1.0 0.1 0.0
151 1 1.0 0.1 0.0
152 1 1.0 0.1 0.0
153 1 1.0 0.1 0.0
154 1 1.0 0.1 0.0
155 1 1.0 0.1 0.0
156 1 1.0 0.1 0.0
157 1 1.0 0.1 0.0
158 1 1.0 0.1 0.0
159 1 1.0 0.1 0.0
160 1 1.0 0.1 0.0
161 1 1.0 0.1 0.0
162 1 1.0 0.1 0.0
163 1 1.0 0.1 0.0
164 1 1.0 0.1 0.0
165 1 1.0 0.1 0.0
166 1 1.0 0.1 0.0
167 1 1.0 0.1 0.0
168 1 1.0 0.1 0.0
169 1 1.0 0.1 0.0
170 1 1.0 0.1 0.0
171 1 1.0 0.1 0.0
172 1 1.0 0.1 0.0
173 1 1.0 0.1 0.0
174 1 1.0 0.1 0.0
175 1 1.0 0.1 0.0
176 1 1.0 0.1 0.0
177 1 1.0 0.1 0.0
178 1 1.0 0.1 0.0
179 1 1.0 0.1 0.0
180 1 1.0 0.1 0.0
181 1 1.0 0.1 0.0
182 1 1.0 0.1 0.0
183 1 1.0 0.1 0.0
184 1 1.0 0.1 0.0
185 1 1.0 0.1 0.0
186 1 1.0 0.1 0.0
187 1 1.0 0.1 0.0
188 1 1.0 0.1 0.0
189 1 1.0 0.1 0.0
190 1 1.0 0.1 0.0
191 1 1.0 0.1 0.0
192 1 1.0 0.1 0.0
193 1 1.0 0.1 0.0
194 1 1.0 0.1 0.0
195 1 1.0 0.1 0.0
196 1 1.0 0.1 0.0
197 1 1.0 0.1 0.0
198 1 1.0 0.1 0.0
199 1 1.0 0.1 0.0
200 1 1.0 0.1 0.0
201 1 1.0 0.1 0.0
202 1 1.0 0.1 0.0
203 1 1.0 0.1 0.0
204 1 1.0 0.1 0.0
205 1 1.0 0.1 0.0
206 1 1.0 0.1 0.0
207 1 1.0 0.1 0.0
208 1 1.0 0.1 0.0
209 1 1.0 0.1 0.0
210 1 1.0 0.1 0.0
211 1 1.0 0.1 0.0
212 1 1.0 0.1 0.0
213 1 1.0 0.1 0.0
214 1 1.0 0.1 0.0
215 1 1.0 0.1 0.0
216 1 1.0 0.1 0.0
217 1 1.0 0.1 0.0
218 1 1.0 0.1 0.0
219 1 1.0 0.1 0.0
220 1 1.0 0.1 0.0
221 1 1.0 0.1 0.0
222 1 1.0 0.1 0.0
223 1 1.0 0.1 0.0
224 1 1.0 0.1 0.0
225 1 1.0 0.1 0.0
226 1 1.0 0.1 0.0
227 1 1.0 0.1 0.0
228 1 1.0 0.1 0.0
229 1 1.0 0.1 0.0
230 1 1.0 0.1 0.0
231 1 1.0 0.1 0.0
232 1 1.0 0.1 0.0
233 1 1.0 0.1 0.0
234 1 1.0 0.1 0.0
235 1 1.0 0.1 0.0
236 1 1.0 0.1 0.0
237 1 1.0 0.1 0.0
238 1 1.0 0.1 0.0
239 1 1.0 0.1 0.0
240 1 1.0 0.1 0.0
241 1 1.0 0.1 0.0
242 1 1.0 0.1 0.0
243 1 1.0 0.1 0.0
244 1 1.0 0.1 0.0
245 1 1.0 0.1 0.0
246 1 1.0 0.1 0.0
247 1 1.0 0.1 0.0
248 1 1.0 0.1 0.0
249 1 1.0 0.1 0.0
250 1 1.0 0.1 0.0
251 1 1.0 0.1 0.0
252 1 1.0 0.1 0.0
253 1 1.0 0.1 0.0
254 1 1.0 0.1 0.0
255 1 1.0 0.1 0.0
256 1 1.0 0.1 0.0
257 1 1.0 0.1 0.0
258 1 1.0 0.1 0.0
259 1 1.0 0.1 0.0
260 1 1.0 0.1 0.0
261 1 1.0 0.1 0.0
262 1 1.0 0.1 0.0
263 1 1.0 0.1 0.0
264 1 1.0 0.1 0.0
265 1 1.0 0.1 0.0
266 1 1.0 0.1 0.0
267 1 1.0 0.1 0.0
268 1 1.0 0.1 0.0
269 1 1.0 0.1 0.0
270 1 1.0 0.1 0.0
271 1 1.0 0.1 0.0
272 1 1.0 0.1 0.0
273 1 1.0 0.1 0.0
274 1 1.0 0.1 0.0
275 1 1.0 0.1 0.0
276 1 1.0 0.1 0.0
277 1 1.0 0.1 0.0
278 1 1.0 0.1 0.0
279 1 1.0 0.1 0.0
280 1 1.0 0.1 0.0
281 1 1.0 0.1 0.0
282 1 1.0 0.1 0.0
283 1 1.0 0.1 0.0
284 1 1.0 0.1 0.0
285 1 1.0 0.1 0.0
286 1 1.0 0.1 0.0
287 1 1.0 0.1 0.0
288 1 1.0 0.1 0.0
289 1 1.0 0.1 0.0
290 1 1.0 0.1 0.0
291 1 1.0 0.1 0.0
292 1 1.0 0.1 0.0
293 1 1.0 0.1 0.0
294 1 1.0 0.1 0.0
295 1 1.0 0.1 0.0
296 1 1.0 0.1 0.0
297 1 1.0 0.1 0.0
298 1 1.0 0.1 0.0
299 1 1.0 0.1 0.0
300 1 1.0 0.1 0.0
301 1 1.0 0.1 0.0
302 1 1.0 0.1 0.0
303 1 1.0 0.1 0.0
304 1 1.0 0.1 0.0
305 1 1.0 0.1 0.0
306 1 1.0 0.1 0.0
307 1 1.0 0.1 0.0
308 1 1.0 0.1 0.0
309 1 1.0 0.1 0.0
310 1 1.0 0.1 0.0
311 1 1.0 0.1 0.0
312 1 1.0 0.1 0.0
313 1 1.0 0.1 0.0
314 1 1.0 0.1 0.0
315 1 1.0 0.1 0.0
316 1 1.0 0.1 0.0
317 1 1.0 0.1 0.0
318 1 1.0 0.1 0.0
319 1 1.0 0.1 0.0
320 1 1.0 0.1 0.0
321 1 1.0 0.1 0.0
322 1 1.0 0.1 0.0
323 1 1.0 0.1 0.0
324 1 1.0 0.1 0.0
325 1 1.0 0.1 0.0
326 1 1.0 0.1 0.0
327 1 1.0 0.1 0.0
328 1 1.0 0.1 0.0
329 1 1.0 0.1 0.0
330 1 1.0 0.1 0.0
331 1 1.0 0.1 0.0
332 1 1.0 0.1 0.0
333 1 1.0 0.1 0.0
334 1 1.0 0.1 0.0
335 1 1.0 0.1 0.0
336 1 1.0 0.1 0.0
337 1 1.0 0.1 0.0
338 1 1.0 0.1 0.0
339 1 1.0 0.1 0.0
340 1 1.0 0.1 0.0
341 1 1.0 0.1 0.0
342 1 1.0 0.1 0.0
343 1 1.0 0.1 0.0
344 1 1.0 0.1 0.0
345 1 1.0 0.1 0.0
346 1 1.0 0.1 0.0
347 1 1.0 0.1 0.0
348 1 1.0 0.1 0.0
349 1 1.0 0.1 0.0
350 1 1.0 0.1 0.0
351 1 1.0 0.1 0.0
352 1 1.0 0.1 0.0
353 1 1.0 0.1 0.0
354 1 1.0 0.1 0.0
355 1 1.0 0.1 0.0
356 1 1.0 0.1 0.0
357 1 1.0 0.1 0.0
358 1 1.0 0.1 0.0
359 1 1.0 0.1 0.0
360 1 1.0 0.1 0.0
361 1 1.0 0.1 0.0
362 1 1.0 0.1 0.0
363 1 1.0 0.1 0.0
364 1 1.0 0.1 0.0
365 1 1.0 0.1 0.0
366 1 1.0 0.1 0.0
367 1 1.0 0.1 0.0
368 1 1.0 0.1 0.0
369 1 1.0 0.1 0.0
370 1 1.0 0.1 0.0
371 1 1.0 0.1 0.0
372 1 1.0 0.1 0.0
373 1 1.0 0.1 0.0
374 1 1.0 0.1 0.0
375 1 1.0 0.1 0.0
376 1 1.0 0.1 0.0
377 1 1.0 0.1 0.0
378 1 1.0 0.1 0.0
379 1 1.0 0.1 0.0
380 1 1.0 0.1 0.0
381 1 1.0 0.1 0.0
382 1 1.0 0.1 0.0
383 1 1.0 0.1 0.0
384 1 1.0 0.1 0.0
385 1 1.0 0.1 0.0
386 1 1.0 0.1 0.0
387 1 1.0 0.1 0.0
388 1 1.0 0.1 0.0
389 1 1.0 0.1 0.0
390 1 1.0 0.1 0.0
391 1 1.0 0.1 0.0
392 1 1.0 0.1 0.0
393 1 1.0 0.1 0.0
394 1 1.0 0.1 0.0
395 1 1.0 0.1 0.0
396 1 1.0 0.1 0.0
397 1 1.0 0.1 0.0
398 1 1.0 0.1 0.0
399 1 1.0 0.1 0.0
400 1 1.0 0.1 0.0
401 1 1.0 0.1 0.0
402 1 1.0 0.1 0.0
403 1 1.0 0.1 0.0
404 1 1.0 0.1 0.0
405 1 1.0 0.1 0.0
406 1 1.0 0.1 0.0
407 1 1.0 0.1 0.0
408 1 1.0 0.1 0.0
409 1 1.0 0.1 0.0
410 1 1.0 0.1 0.0
411 1 1.0 0.1 0.0
412 1 1.0 0.1 0.0
413 1 1.0 0.1 0.0
414 1 1.0 0.1 0.0
415 1 1.0 0.1 0.0
416 1 1.0 0.1 0.0
417 1 1.0 0.1 0.0
418 1 1.0 0.1 0.0
419 1 1.0 0.1 0.0
420 1 1.0 0.1 0.0
421 1 1.0 0.1 0.0
422 1 1.0 0.1 0.0
423 1 1.0 0.1 0.0
424 1 1.0 0.1 0.0
425 1 1.0 0.1 0.0
426 1 1.0 0.1 0.0
427 1 1.0 0.1 0.0
428 1 1.0 0.1 0.0
429 1 1.0 0.1 0.0
430 1 1.0 0.1 0.0
431 1 1.0 0.1 0.0
432 1 1.0 0.1 0.0
433 1 1.0 0.1 0.0
434 1 1.0 0.1 0.0
435 1 1.0 0.1 0.0
436 1 1.0 0.1 0.0
437 1 1.0 0.1 0.0
438 1 1.0 0.1 0.0
439 1 1.0 0.1 0.0
440 1 1.0 0.1 0.0
441 1 1.0 0.1 0.0
442 1 1.0 0.1 0.0
443 1 1.0 0.1 0.0
444 1 1.0 0.1 0.0
445 1 1.0 0.1 0.0
446 1 1.0 0.1 0.0
447 1 1.0 0.1 0.0
448 1 1.0 0.1 0.0
449 1 1.0 0.1 0.0
450 1 1.0 0.1 0.0
451 1 1.0 0.1 0.0
452 1 1.0 0.1 0.0
453 1 1.0 0.1 0.0
454 1 1.0 0.1 0.0
455 1 1.0 0.1 0.0
456 1 1.0 0.1 0.0
457 1 1.0 0.1 0.0
458 1 1.0 0.1 0.0
459 1 1.0 0.1 0.0
460 1 1.0 0.1 0.0
461 1 1.0 0.1 0.0
462 1 1.0 0.1 0.0
463 1 1.0 0.1 0.0
464 1 1.0 0.1 0.0
465 1 1.0 0.1 0.0
466 1 1.0 0.1 0.0
467 1 1.0 0.1 0.0
468 1 1.0 0.1 0.0
469 1 1.0 0.1 0.0
470 1 1.0 0.1 0.0
471 1 1.0 0.1 0.0
472 1 1.0 0.1 0.0
473 1 1.0 0.1 0.0
474 1 1.0 0.1 0.0
475 1 1.0 0.1 0.0
476 1 1.0 0.1 0.0
477 1 1.0 0.1 0.0
478 1 1.0 0.1 0.0
479 1 1.0 0.1 0.0
480 1 1.0 0.1 0.0
481 1 1.0 0.1 0.0
482 1 1.0 0.1 0.0
483 1 1.0 0.1 0.0
484 1 1.0 0.1 0.0
485 1 1.0 0.1 0.0
486 1 1.0 0.1 0.0
487 1 1.0 0.1 0.0
488 1 1.0 0.1 0.0
489 1 1.0 0.1 0.0
490 1 1.0 0.1 0.0
491 1 1.0 0.1 0.0
492 1 1.0 0.1 0.0
493 1 1.0 0.1 0.0
494 1 1.0 0.1 0.0
495 1 1.0 0.1 0.0
496 1 1.0 0.1 0.0
497 1 1.0 0.1 0.0
498 1 1.0 0.1 0.0
499 1 1.0 0.1 0.0
500 1 1.0 0.1 0.0
501 1 1.0 0.1 0.0
502 1 1.0 0.1 0.0
503 1 1.0 0.1 0.0
504 1 1.0 0.1 0.0
505 1 1.0 0.1 0.0
506 1 1.0 0.1 0.0
507 1 1.0 0.1 0.0
508 1 1.0 0.1 0.0
509 1 1.0 0.1 0.0
510 1 1.0 0.1 0.0
511 1 1.0 0.1 0.0
512 1 1.0 0.1 0.0
513 1 1.0 0.1 0.0
514 1 1.0 0.1 0.0
515 1 1.0 0.1 0.0
516 1 1.0 0.1 0.0
517 1 1.0 0.1 0.0
518 1 1.0 0.1 0.0
519 1 1.0 0.1 0.0
520 1 1.0 0.1 0.0
521 1 1.0 0.1 0.0
522 1 1.0 0.1 0.0
523 1 1.0 0.1 0.0
524 1 1.0 0.1 0.0
525 1 1.0 0.1 0.0
526 1 1.0 0.1 0.0
527 1 1.0 0.1 0.0
528 1 1.0 0.1 0.0
529 1 1.0 0.1 0.0
530 1 1.0 0.1 0.0
531 1 1.0 0.1 0.0
532 1 1.0 0.1 0.0
533 1 1.0 0.1 0.0
534 1 1.0 0.1 0.0
535 1 1.0 0.1 0.0
536 1 1.0 0.1 0.0
537 1 1.0 0.1 0.0
538 1 1.0 0.1 0.0
539 1 1.0 0.1 0.0
540 1 1.0 0.1 0.0
541 1 1.0 0.1 0.0
542 1 1.0 0.1 0.0
543 1 1.0 0.1 0.0
544 1 1.0 0.1 0.0
545 1 1.0 0.1 0.0
546 1 1.0 0.1 0.0
547 1 1.0 0.1 0.0
548 1 1.0 0.1 0.0
549 1 1.0 0.1 0.0
550 1 1.0 0.1 0.0
551 1 1.0 0.1 0.0
552 1 1.0 0.1 0.0
553 1 1.0 0.1 0.0
554 1 1.0 0.1 0.0
555 1 1.0 0.1 0.0
556 1 1.0 0.1 0.0
557 1 1.0 0.1 0.0
558 1 1.0 0.1 0.0
559 1 1.0 0.1 0.0
560 1 1.0 0.1 0.0
561 1 1.0 0.1 0.0
562 1 1.0 0.1 0.0
563 1 1.0 0.1 0.0
564 1 1.0 0.1 0.0
565 1 1.0 0.1 0.0
566 1 1.0 0.1 0.0
567 1 1.0 0.1 0.0
568 1 1.0 0.1 0.0
569 1 1.0 0.1 0.0
570 1 1.0 0.1 0.0
571 1 1.0 0.1 0.0
572 1 1.0 0.1 0.0
573 1 1.0 0.1 0.0
574 1 1.0 0.1 0.0
575 1 1.0 0.1 0.0
576 1 1.0 0.1 0.0
577 1 1.0 0.1 0.0
578 1 1.0 0.1 0.0
579 1 1.0 0.1 0.0
580 1 1.0 0.1 0.0
581 1 1.0 0.1 0.0
582 1 1.0 0.1 0.0
583 1 1.0 0.1 0.0
584 1 1.0 0.1 0.0
585 1 1.0 0.1 0.0
586 1 1.0 0.1 0.0
587 1 1.0 0.1 0.0
588 1 1.0 0.1 0.0
589 1 1.0 0.1 0.0
590 1 1.0 0.1 0.0
591 1 1.0 0.1 0.0
592 1 1.0 0.1 0.0
593 1 1.0 0.1 0.0
594 1 1.0002811430476994 0.10160474024392722 -0.00028106402850174266
595 1 1.000186607016687 0.09978455022730434 -0.0006037445009989369
596 1 1.0022321820198967 0.09690535159758866 0.0008177199719159213
597 1 0.9981511110657523 0.10210715071849291 -0.0011887408870878864
598 1 1.0100573396499128 0.09794845352915088 -0.0005700368659124809
599 1 0.9984336814291578 0.05768937609217215 -0.0003426489843827556
0 2 0.9959560995344007 0.04862839242061784 0.0005936520706498479
1 2 1.0072995507564375 0.10332026729217687 0.003800739808263389
2 2 1.0023639545724996 0.10481108830037295 0.004704072562687916
3 2 1.0027034241241533 0.09656539587415437 -3.5805087260816445e-05
4 2 0.9970997784352451 0.10025178868632753 -0.0012152596439150634
5 2 1.0003860264897342 0.10100274942017064 0.0003858775307855605
6 2 1.0 0.1 0.0
7 2 1.0 0.1 0.0
8 2 1.0 0.1 0.0
9 2 1.0 0.1 0.0
10 2 1.0 0.1 0.0
11 2 1.0 0.1 0.0
12 2 1.0 0.1 0.0
13 2 1.0 0.1 0.0
14 2 1.0 0.1 0.0
15 2 1.0 0.1 0.0
16 2 1.0 0.1 0.0
17 2 1.0 0.1 0.0
18 2 1.0 0.1 0.0
19 2 1.0 0.1 0.0
20 2 1.0 0.1 0.0
21 2 1.0 0.1 0.0
22 2 1.0 0.1 0.0
23 2 1.0 0.1 0.0
24 2 1.0 0.1 0.0
25 2 1.0 0.1 0.0
26 2 1.0 0.1 0.0
27 2 1.0 0.1 0.0
28 2 1.0 0.1 0.0
29 2 1.0 0.1 0.0
30 2 1.0 0.1 0.0
31 2 1.0 0.1 0.0
32 2 1.0 0.1 0.0
33 2 1.0 0.1 0.0
34 2 1.0 0.1 0.0
35 2 1.0 0.1 0.0
36 2 1.0 0.1 0.0
37 2 1.0 0.1 0.0
38 2 1.0 0.1 0.0
39 2 1.0 0.1 0.0
40 2 1.0 0.1 0.0
41 2 1.0 0.1 0.0
42 2 1.0 0.1 0.0
43 2 1.0 0.1 0.0
44 2 1.0 0.1 0.0
45 2 1.0 0.1 0.0
46 2 1.0 0.1 0.0
47 2 1.0 0.1 0.0
48 2 1.0 0.1 0.0
49 2 1.0 0.1 0.0
50 2 1.0 0.1 0.0
51 2 1.0 0.1 0.0
52 2 1.0 0.1 0.0
53 2 1.0 0.1 0.0
54 2 1.0 0.1 0.0
55 2 1.0 0.1 0.0
56 2 1.0 0.1 0.0
57 2 1.0 0.1 0.0
58 2 1.0 0.1 0.0
59 2 1.0 0.1 0.0
60 2 1.0 0.1 0.0
61 2 1.0 0.1 0.0
62 2 1.0 0.1 0.0
63 2 1.0 0.1 0.0
64 2 1.0 0.1 0.0
65 2 1.0 0.1 0.0
66 2 1.0 0.1 0.0
67 2 1.0 0.1 0.0
68 2 1.0 0.1 0.0
69 2 1.0 0.1 0.0
70 2 1.0 0.1 0.0
71 2 1.0 0.1 0.0
72 2 1.0 0.1 0.0
73 2 1.0 0.1 0.0
74 2 1.0 0.1 0.0
75 2 1.0 0.1 0.0
76 2 1.0 0.1 0.0
77 2 1.0 0.1 0.0
78 2 1.0 0.1 0.0
79 2 1.0 0.1 0.0
80 2 1.0 0.1 0.0
81 2 1.0 0.1 0.0
82 2 1.0 0.1 0.0
83 2 1.0 0.1 0.0
84 2 1.0 0.1 0.0
85 2 1.0 0.1 0.0
86 2 1.0 0.1 0.0
87 2 1.0 0.1 0.0
88 2 1.0 0.1 0.0
89 2 1.0 0.1 0.0
90 2 1.0 0.1 0.0
91 2 1.0 0.1 0.0
92 2 1.0 0.1 0.0
93 2 1.0 0.1 0.0
94 2 1.0 0.1 0.0
95 2 1.0 0.1 0.0
96 2 1.0 0.1 0.0
97 2 1.0 0.1 0.0
98 2 1.0 0.1 0.0
99 2 1.0 0.1 0.0
100 2 1.0 0.1 0.0
101 2 1.0 0.1 0.0
102 2 1.0 0.1 0.0
103 2 1.0 0.1 0.0
104 2 1.0 0.1 0.0
105 2 1.0 0.1 0.0
106 2 1.0 0.1 0.0
107 2 1.0 0.1 0.0
108 2 1.0 0.1 0.0
109 2 1.0 0.1 0.0
110 2 1.0 0.1 0.0
111 2 1.0 0.1 0.0
112 2 1.0 0.1 0.0
113 2 1.0 0.1 0.0
114 2 1.0 0.1 0.0
115 2 1.0 0.1 0.0
116 2 1.0 0.1 0.0
117 2 1.0 0.1 0.0
118 2 1.0 0.1 0.0
119 2 1.0 0.1 0.0
120 2 1.0 0.1 0.0
121 2 1.0 0.1 0.0
122 2 1.0 0.1 0.0
123 2 1.0 0.1 0.0
124 2 1.0 0.1 0.0
125 2 1.0 0.1 0.0
126 2 1.0 0.1 0.0
127 2 1.0 0.1 0.0
128 2 1.0 0.1 0.0
129 2 1.0 0.1 0.0
130 2 1.0 0.1 0.0
131 2 1.0 0.1 0.0
132 2 1.0 0.1 0.0
133 2 1.0 0.1 0.0
134 2 1.0 0.1 0.0
135 2 1.0 0.1 0.0
136 2 1.0 0.1 0.0
137 2 1.0 0.1 0.0
138 2 1.0 0.1 0.0
139 2 1.0 0.1 0.0
140 2 1.0 0.1 0.0
141 2 1.0 0.1 0.0
142 2 1.0 0.1 0.0
143 2 1.0 0.1 0.0
144 2 1.0 0.1 0.0
145 2 1.0 0.1 0.0
146 2 1.0 0.1 0.0
147 2 1.0 0.1 0.0
148 2 1.0 0.1 0.0
149 2 1.0 0.1 0.0
150 2 1.0 0.1 0.0
151 2 1.0 0.1 0.0
152 2 1.0 0.1 0.0
153 2 1.0 0.1 0.0
154 2 1.0 0.1 0.0
155 2 1.0 0.1 0.0
156 2 1.0 0.1 0.0
157 2 1.0 0.1 0.0
158 2 1.0 0.1 0.0
159 2 1.0 0.1 0.0
160 2 1.0 0.1 0.0
161 2 1.0 0.1 0.0
162 2 1.0 0.1 0.0
163 2 1.0 0.1 0.0
164 2 1.0 0.1 0.0
165 2 1.0 0.1 0.0
166 2 1.0 0.1 0.0
167 2 1.0 0.1 0.0
168 2 1.0 0.1 0.0
169 2 1.0 0.1 0.0
170 2 1.0 0.1 0.0
171 2 1.0 0.1 0.0
172 2 1.0 0.1 0.0
173 2 1.0 0.1 0.0
174 2 1.0 0.1 0.0
175 2 1.0 0.1 0.0
176 2 1.0 0.1 0.0
177 2 1.0 0.1 0.0
178 2 1.0 0.1 0.0
179 2 1.0 0.1 0.0
180 2 1.0 0.1 0.0
181 2 1.0 0.1 0.0
182 2 1.0 0.1 0.0
183 2 1.0 0.1 0.0
184 2 1.0 0.1 0.0
185 2 1.0 0.1 0.0
186 2 1.0 0.1 0.0
187 2 1.0 0.1 0.0
188 2 1.0 0.1 0.0
189 2 1.0 0.1 0.0
190 2 1.0 0.1 0.0
191 2 1.0 0.1 0.0
192 2 1.0 0.1 0.0
193 2 1.0 0.1 0.0
194 2 1.0 0.1 0.0
195 2 1.0 0.1 0.0
196 2 1.0 0.1 0.0
197 2 1.0 0.1 0.0
198 2 1.0 0.1 0.0
199 2 1.0 0.1 0.0
200 2 1.0 0.1 0.0
201 2 1.0 0.1 0.0
202 2 1.0 0.1 0.0
203 2 1.0 0.1 0.0
204 2 1.0 0.1 0.0
205 2 1.0 0.1 0.0
206 2 1.0 0.1 0.0
207 2 1.0 0.1 0.0
208 2 1.0 0.1 0.0
209 2 1.0 0.1 0.0
210 2 1.0 0.1 0.0
211 2 1.0 0.1 0.0
212 2 1.0 0.1 0.0
213 2 1.0 0.1 0.0
214 2 1.0 0.1 0.0
215 2 1.0 0.1 0.0
216 2 1.0 0.1 0.0
217 2 1.0 0.1 0.0
218 2 1.0 0.1 0.0
219 2 1.0 0.1 0.0
220 2 1.0 0.1 0.0
221 2 1.0 0.1 0.0
222 2 1.0 0.1 0.0
223 2 1.0 0.1 0.0
224 2 1.0 0.1 0.0
225 2 1.0 0.1 0.0
226 2 1.0 0.1 0.0
227 2 1.0 0.1 0.0
228 2 1.0 0.1 0.0
229 2 1.0 0.1 0.0
230 2 1.0 0.1 0.0
231 2 1.0 0.1 0.0
232 2 1.0 0.1 0.0
233 2 1.0 0.1 0.0
234 2 1.0 0.1 0.0
235 2 1.0 0.1 0.0
236 2 1.0 0.1 0.0
237 2 1.0 0.1 0.0
238 2 1.0 0.1 0.0
239 2 1.0 0.1 0.0
240 2 1.0 0.1 0.0
241 2 1.0 0.1 0.0
242 2 1.0 0.1 0.0
243 2 1.0 0.1 0.0
244 2 1.0 0.1 0.0
245 2 1.0 0.1 0.0
246 2 1.0 0.1 0.0
247 2 1.0 0.1 0.0
248 2 1.0 0.1 0.0
249 2 1.0 0.1 0.0
250 2 1.0 0.1 0.0
251 2 1.0 0.1 0.0
252 2 1.0 0.1 0.0
253 2 1.0 0.1 0.0
254 2 1.0 0.1 0.0
255 2 1.0 0.1 0.0
256 2 1.0 0.1 0.0
257 2 1.0 0.1 0.0
258 2 1.0 0.1 0.0
259 2 1.0 0.1 0.0
260 2 1.0 0.1 0.0
261 2 1.0 0.1 0.0
262 2 1.0 0.1 0.0
263 2 1.0 0.1 0.0
264 2 1.0 0.1 0.0
265 2 1.0 0.1 0.0
266 2 1.0 0.1 0.0
267 2 1.0 0.1 0.0
268 2 1.0 0.1 0.0
269 2 1.0 0.1 0.0
270 2 1.0 0.1 0.0
271 2 1.0 0.1 0.0
272 2 1.0 0.1 0.0
273 2 1.0 0.1 0.0
274 2 1.0 0.1 0.0
275 2 1.0 0.1 0.0
276 2 1.0 0.1 0.0
277 2 1.0 0.1 0.0
278 2 1.0 0.1 0.0
279 2 1.0 0.1 0.0
280 2 1.0 0.1 0.0
281 2 1.0 0.1 0.0
282 2 1.0 0.1 0.0
283 2 1.0 0.1 0.0
284 2 1.0 0.1 0.0
285 2 1.0 0.1 0.0
286 2 1.0 0.1 0.0
287 2 1.0 0.1 0.0
288 2 1.0 0.1 0.0
289 2 1.0 0.1 0.0
290 2 1.0 0.1 0.0
291 2 1.0 0.1 0.0
292 2 1.0 0.1 0.0
293 2 1.0 0.1 0.0
294 2 1.0 0.1 0.0
295 2 1.0 0.1 0.0
296 2 1.0 0.1 0.0
297 2 1.0 0.1 0.0
298 2 1.0 0.1 0.0
299 2 1.0 0.1 0.0
300 2 1.0 0.1 0.0
301 2 1.0 0.1 0.0
302 2 1.0 0.1 0.0
303 2 1.0 0.1 0.0
304 2 1.0 0.1 0.0
305 2 1.0 0.1 0.0
306 2 1.0 0.1 0.0
307 2 1.0 0.1 0.0
308 2 1.0 0.1 0.0
309 2 1.0 0.1 0.0
310 2 1.0 0.1 0.0
311 2 1.0 0.1 0.0
312 2 1.0 0.1 0.0
313 2 1.0 0.1 0.0
314 2 1.0 0.1 0.0
315 2 1.0 0.1 0.0
316 2 1.0 0.1 0.0
317 2 1.0 0.1 0.0
318 2 1.0 0.1 0.0
319 2 1.0 0.1 0.0
320 2 1.0 0.1 0.0
321 2 1.0 0.1 0.0
322 2 1.0 0.1 0.0
323 2 1.0 0.1 0.0
324 2 1.0 0.1 0.0
325 2 1.0 0.1 0.0
326 2 1.0 0.1 0.0
327 2 1.0 0.1 0.0
328 2 1.0 0.1 0.0
329 2 1.0 0.1 0.0
330 2 1.0 0.1 0.0
331 2 1.0 0.1 0.0
332 2 1.0 0.1 0.0
333 2 1.0 0.1 0.0
334 2 1.0 0.1 0.0
335 2 1.0 0.1 0.0
336 2 1.0 0.1 0.0
337 2 1.0 0.1 0.0
338 2 1.0 0.1 0.0
339 2 1.0 0.1 0.0
340 2 1.0 0.1 0.0
341 2 1.0 0.1 0.0
342 2 1.0 0.1 0.0
343 2 1.0 0.1 0.0
344 2 1.0 0.1 0.0
345 2 1.0 0.1 0.0
346 2 1.0 0.1 0.0
347 2 1.0 0.1 0.0
348 2 1.0 0.1 0.0
349 2 1.0 0.1 0.0
350 2 1.0 0.1 0.0
351 2 1.0 0.1 0.0
352 2 1.0 0.1 0.0
353 2 1.0 0.1 0.0
354 2 1.0 0.1 0.0
355 2 1.0 0.1 0.0
356 2 1.0 0.1 0.0
357 2 1.0 0.1 0.0
358 2 1.0 0.1 0.0
359 2 1.0 0.1 0.0
360 2 1.0 0.1 0.0
361 2 1.0 0.1 0.0
362 2 1.0 0.1 0.0
363 2 1.0 0.1 0.0
364 2 1.0 0.1 0.0
365 2 1.0 0.1 0.0
366 2 1.0 0.1 0.0
367 2 1.0 0.1 0.0
368 2 1.0 0.1 0.0
369 2 1.0 0.1 0.0
370 2 1.0 0.1 0.0
371 2 1.0 0.1 0.0
372 2 1.0 0.1 0.0
373 2 1.0 0.1 0.0
374 2 1.0 0.1 0.0
375 2 1.0 0.1 0.0
376 2 1.0 0.1 0.0
377 2 1.0 0.1 0.0
378 2 1.0 0.1 0.0
379 2 1.0 0.1 0.0
380 2 1.0 0.1 0.0
381 2 1.0 0.1 0.0
382 2 1.0 0.1 0.0
383 2 1.0 0.1 0.0
384 2 1.0 0.1 0.0
385 2 1.0 0.1 0.0
386 2 1.0 0.1 0.0
387 2 1.0 0.1 0.0
388 2 1.0 0.1 0.0
389 2 1.0 0.1 0.0
390 2 1.0 0.1 0.0
391 2 1.0 0.1 0.0
392 2 1.0 0.1 0.0
393 2 1.0 0.1 0.0
394 2 1.0 0.1 0.0
395 2 1.0 0.1 0.0
396 2 1.0 0.1 0.0