TITLE = "LBM Simulation"
VARIABLES = "X", "Y", "rho", "u", "v"
ZONE T="Zone 0", I=60, J=20, F=POINT
0 0 0.99945 0.0007337368886220641 3.471356197862439e-18
1 0 0.9999999999999999 0.00109999999999999 0.0005500000000000124
2 0 0.9999999999999999 0.00109999999999999 0.0005500000000000124
3 0 0.9999999999999999 0.00109999999999999 0.0005500000000000124
4 0 0.9999999999999999 0.00109999999999999 0.0005500000000000124
5 0 0.9999999999999999 0.00109999999999999 0.0005500000000000124
6 0 0.9999999999999999 0.00109999999999999 0.0005500000000000124
7 0 0.9999999999999999 0.00109999999999999 0.0005500000000000124
8 0 0.9999999999999999 0.00109999999999999 0.0005500000000000124
9 0 0.9999999999999999 0.00109999999999999 0.0005500000000000124
10 0 0.9999999999999999 0.00109999999999999 0.0005500000000000124
11 0 0.9999999999999999 0.00109999999999999 0.0005500000000000124
12 0 0.9999999999999999 0.00109999999999999 0.0005500000000000124
13 0 0.9999999999999999 0.00109999999999999 0.0005500000000000124
14 0 0.9999999999999999 0.00109999999999999 0.0005500000000000124
15 0 0.9999999999999999 0.00109999999999999 0.0005500000000000124
16 0 0.9999999999999999 0.00109999999999999 0.0005500000000000124
17 0 0.9999999999999999 0.00109999999999999 0.0005500000000000124
18 0 0.9999999999999999 0.00109999999999999 0.0005500000000000124
19 0 0.9999999999999999 0.00109999999999999 0.0005500000000000124
20 0 0.9999999999999999 0.00109999999999999 0.0005500000000000124
21 0 0.9999999999999999 0.00109999999999999 0.0005500000000000124
22 0 0.9999999999999999 0.00109999999999999 0.0005500000000000124
23 0 0.9999999999999999 0.00109999999999999 0.0005500000000000124
24 0 0.9999999999999999 0.00109999999999999 0.0005500000000000124
25 0 0.9999999999999999 0.00109999999999999 0.0005500000000000124
26 0 0.9999999999999999 0.00109999999999999 0.0005500000000000124
27 0 0.9999999999999999 0.00109999999999999 0.0005500000000000124
28 0 0.9999999999999999 0.00109999999999999 0.0005500000000000124
29 0 0.9999999999999999 0.00109999999999999 0.0005500000000000124
30 0 0.9999999999999999 0.00109999999999999 0.0005500000000000124
31 0 0.9999999999999999 0.00109999999999999 0.0005500000000000124
32 0 0.9999999999999999 0.00109999999999999 0.0005500000000000124
33 0 0.9999999999999999 0.00109999999999999 0.0005500000000000124
34 0 0.9999999999999999 0.00109999999999999 0.0005500000000000124
35 0 0.9999999999999999 0.00109999999999999 0.0005500000000000124
36 0 0.9999999999999999 0.00109999999999999 0.0005500000000000124
37 0 0.9999999999999999 0.00109999999999999 0.0005500000000000124
38 0 0.9999999999999999 0.00109999999999999 0.0005500000000000124
39 0 0.9999999999999999 0.00109999999999999 0.0005500000000000124
40 0 0.9999999999999999 0.00109999999999999 0.0005500000000000124
41 0 0.9999999999999999 0.00109999999999999 0.0005500000000000124
42 0 0.9999999999999999 0.00109999999999999 0.0005500000000000124
43 0 0.9999999999999999 0.00109999999999999 0.0005500000000000124
44 0 0.9999999999999999 0.00109999999999999 0.0005500000000000124
45 0 0.9999999999999999 0.00109999999999999 0.0005500000000000124
46 0 0.9999999999999999 0.00109999999999999 0.0005500000000000124
47 0 0.9999999999999999 0.00109999999999999 0.0005500000000000124
48 0 0.9999999999999999 0.00109999999999999 0.0005500000000000124
49 0 0.9999999999999999 0.00109999999999999 0.0005500000000000124
50 0 0.9999999999999999 0.00109999999999999 0.0005500000000000124
51 0 0.9999999999999999 0.00109999999999999 0.0005500000000000124
52 0 0.9999999999999999 0.00109999999999999 0.0005500000000000124
53 0 0.9999999999999999 0.00109999999999999 0.0005500000000000124
54 0 0.9999999999999999 0.00109999999999999 0.0005500000000000124
55 0 0.9999999999999999 0.00109999999999999 0.0005500000000000124
56 0 0.9999999999999999 0.00109999999999999 0.0005500000000000124
57 0 0.9999999999999999 0.00109999999999999 0.0005500000000000124
58 0 0.9999999999999999 0.00109999999999999 0.0005500000000000124
59 0 1.00055 0.0007329302217113806 3.4675398050608307e-18
0 1 0.99945 0.0007337368886220641 3.471356197862439e-18
1 1 0.9999999999999999 0.00109999999999999 0.0005500000000000124
2 1 0.9999999999999999 0.00109999999999999 0.0005500000000000124
3 1 0.9999999999999999 0.00109999999999999 0.0005500000000000124
4 1 0.9999999999999999 0.00109999999999999 0.0005500000000000124
5 1 0.9999999999999999 0.00109999999999999 0.0005500000000000124
6 1 0.9999999999999999 0.00109999999999999 0.0005500000000000124
7 1 0.9999999999999999 0.00109999999999999 0.0005500000000000124
8 1 0.9999999999999999 0.00109999999999999 0.0005500000000000124
9 1 0.9999999999999999 0.00109999999999999 0.0005500000000000124
10 1 0.9999999999999999 0.00109999999999999 0.0005500000000000124
11 1 0.9999999999999999 0.00109999999999999 0.0005500000000000124
12 1 0.9999999999999999 0.00109999999999999 0.0005500000000000124
13 1 0.9999999999999999 0.00109999999999999 0.0005500000000000124
14 1 0.9999999999999999 0.00109999999999999 0.0005500000000000124
15 1 0.9999999999999999 0.00109999999999999 0.0005500000000000124
16 1 0.9999999999999999 0.00109999999999999 0.0005500000000000124
17 1 0.9999999999999999 0.00109999999999999 0.0005500000000000124
18 1 0.9999999999999999 0.00109999999999999 0.0005500000000000124
19 1 0.9999999999999999 0.00109999999999999 0.0005500000000000124
20 1 0.9999999999999999 0.00109999999999999 0.0005500000000000124
21 1 0.9999999999999999 0.00109999999999999 0.0005500000000000124
22 1 0.9999999999999999 0.00109999999999999 0.0005500000000000124
23 1 0.9999999999999999 0.00109999999999999 0.0005500000000000124
24 1 0.9999999999999999 0.00109999999999999 0.0005500000000000124
25 1 0.9999999999999999 0.00109999999999999 0.0005500000000000124
26 1 0.9999999999999999 0.00109999999999999 0.0005500000000000124
27 1 0.9999999999999999 0.00109999999999999 0.0005500000000000124
28 1 0.9999999999999999 0.00109999999999999 0.0005500000000000124
29 1 0.9999999999999999 0.00109999999999999 0.0005500000000000124
30 1 0.9999999999999999 0.00109999999999999 0.0005500000000000124
31 1 0.9999999999999999 0.00109999999999999 0.0005500000000000124
32 1 0.9999999999999999 0.00109999999999999 0.0005500000000000124
33 1 0.9999999999999999 0.00109999999999999 0.0005500000000000124
34 1 0.9999999999999999 0.00109999999999999 0.0005500000000000124
35 1 0.9999999999999999 0.00109999999999999 0.0005500000000000124
36 1 0.9999999999999999 0.00109999999999999 0.0005500000000000124
37 1 0.9999999999999999 0.00109999999999999 0.0005500000000000124
38 1 0.9999999999999999 0.00109999999999999 0.0005500000000000124
39 1 0.9999999999999999 0.00109999999999999 0.0005500000000000124
40 1 0.9999999999999999 0.00109999999999999 0.0005500000000000124
41 1 0.9999999999999999 0.00109999999999999 0.0005500000000000124
42 1 0.9999999999999999 0.00109999999999999 0.0005500000000000124
43 1 0.9999999999999999 0.00109999999999999 0.0005500000000000124
44 1 0.9999999999999999 0.00109999999999999 0.0005500000000000124
45 1 0.9999999999999999 0.00109999999999999 0.0005500000000000124
46 1 0.9999999999999999 0.00109999999999999 0.0005500000000000124
47 1 0.9999999999999999 0.00109999999999999 0.0005500000000000124
48 1 0.9999999999999999 0.00109999999999999 0.0005500000000000124
49 1 0.9999999999999999 0.00109999999999999 0.0005500000000000124
50 1 0.9999999999999999 0.00109999999999999 0.0005500000000000124
51 1 0.9999999999999999 0.00109999999999999 0.0005500000000000124
52 1 0.9999999999999999 0.00109999999999999 0.0005500000000000124
53 1 0.9999999999999999 0.00109999999999999 0.0005500000000000124
54 1 0.9999999999999999 0.00109999999999999 0.0005500000000000124
55 1 0.9999999999999999 0.00109999999999999 0.0005500000000000124
56 1 0.9999999999999999 0.00109999999999999 0.0005500000000000124
57 1 0.9999999999999999 0.00109999999999999 0.0005500000000000124
58 1 0.9999999999999999 0.00109999999999999 0.0005500000000000124
59 1 1.00055 0.0007329302217113806 3.4675398050608307e-18
0 2 0.99945 0.0007337368886220641 3.471356197862439e-18
1 2 0.9999999999999999 0.00109999999999999 0.0005500000000000124
2 2 0.9999999999999999 0.00109999999999999 0.0005500000000000124
3 2 0.9999999999999999 0.00109999999999999 0.0005500000000000124
4 2 0.9999999999999999 0.00109999999999999 0.0005500000000000124
5 2 0.9999999999999999 0.00109999999999999 0.0005500000000000124
6 2 0.9999999999999999 0.00109999999999999 0.0005500000000000124
7 2 0.9999999999999999 0.00109999999999999 0.0005500000000000124
8 2 0.9999999999999999 0.00109999999999999 0.0005500000000000124
9 2 0.9999999999999999 0.00109999999999999 0.0005500000000000124
10 2 0.9999999999999999 0.00109999999999999 0.0005500000000000124
11 2 0.9999999999999999 0.00109999999999999 0.0005500000000000124
12 2 0.9999999999999999 0.00109999999999999 0.0005500000000000124
13 2 0.9999999999999999 0.00109999999999999 0.0005500000000000124
14 2 0.9999999999999999 0.00109999999999999 0.0005500000000000124
15 2 0.9999999999999999 0.00109999999999999 0.0005500000000000124
16 2 0.9999999999999999 0.00109999999999999 0.0005500000000000124
17 2 0.9999999999999999 0.00109999999999999 0.0005500000000000124
18 2 0.9999999999999999 0.00109999999999999 0.0005500000000000124
19 2 0.9999999999999999 0.00109999999999999 0.0005500000000000124
20 2 0.9999999999999999 0.00109999999999999 0.0005500000000000124
21 2 0.9999999999999999 0.00109999999999999 0.0005500000000000124
22 2 0.9999999999999999 0.00109999999999999 0.0005500000000000124
23 2 0.9999999999999999 0.00109999999999999 0.0005500000000000124
24 2 0.9999999999999999 0.00109999999999999 0.0005500000000000124
25 2 0.9999999999999999 0.00109999999999999 0.0005500000000000124
26 2 0.9999999999999999 0.00109999999999999 0.0005500000000000124
27 2 0.9999999999999999 0.00109999999999999 0.0005500000000000124
28 2 0.9999999999999999 0.00109999999999999 0.0005500000000000124
29 2 0.9999999999999999 0.00109999999999999 0.0005500000000000124
30 2 0.9999999999999999 0.00109999999999999 0.0005500000000000124
31 2 0.9999999999999999 0.00109999999999999 0.0005500000000000124
32 2 0.9999999999999999 0.00109999999999999 0.0005500000000000124
33 2 0.9999999999999999 0.00109999999999999 0.0005500000000000124
34 2 0.9999999999999999 0.00109999999999999 0.0005500000000000124
35 2 0.9999999999999999 0.00109999999999999 0.0005500000000000124
36 2 0.9999999999999999 0.00109999999999999 0.0005500000000000124
37 2 0.9999999999999999 0.00109999999999999 0.0005500000000000124
38 2 0.9999999999999999 0.00109999999999999 0.0005500000000000124
39 2 0.9999999999999999 0.00109999999999999 0.0005500000000000124
40 2 0.9999999999999999 0.00109999999999999 0.0005500000000000124
41 2 0.9999999999999999 0.00109999999999999 0.0005500000000000124
42 2 0.9999999999999999 0.00109999999999999 0.0005500000000000124
43 2 0.9999999999999999 0.00109999999999999 0.0005500000000000124
44 2 0.9999999999999999 0.00109999999999999 0.0005500000000000124
45 2 0.9999999999999999 0.00109999999999999 0.0005500000000000124
46 2 0.9999999999999999 0.00109999999999999 0.0005500000000000124
47 2 0.9999999999999999 0.00109999999999999 0.0005500000000000124
48 2 0.9999999999999999 0.00109999999999999 0.0005500000000000124
49 2 0.9999999999999999 0.00109999999999999 0.0005500000000000124
50 2 0.9999999999999999 0.00109999999999999 0.0005500000000000124
51 2 0.9999999999999999 0.00109999999999999 0.0005500000000000124
52 2 0.9999999999999999 0.00109999999999999 0.0005500000000000124
53 2 0.9999999999999999 0.00109999999999999 0.0005500000000000124
54 2 0.9999999999999999 0.00109999999999999 0.0005500000000000124
55 2 0.9999999999999999 0.00109999999999999 0.0005500000000000124
56 2 0.9999999999999999 0.00109999999999999 0.0005500000000000124
57 2 0.9999999999999999 0.00109999999999999 0.0005500000000000124
58 2 0.9999999999999999 0.00109999999999999 0.0005500000000000124
59 2 1.00055 0.0007329302217113806 3.4675398050608307e-18
0 3 0.99945 0.0007337368886220641 3.471356197862439e-18
1 3 0.9999999999999999 0.00109999999999999 0.0005500000000000124
2 3 0.9999999999999999 0.00109999999999999 0.0005500000000000124
3 3 0.9999999999999999 0.00109999999999999 0.0005500000000000124
4 3 0.9999999999999999 0.00109999999999999 0.0005500000000000124
5 3 0.9999999999999999 0.00109999999999999 0.0005500000000000124
6 3 0.9999999999999999 0.00109999999999999 0.0005500000000000124
7 3 0.9999999999999999 0.00109999999999999 0.0005500000000000124
8 3 0.9999999999999999 0.00109999999999999 0.0005500000000000124
9 3 0.9999999999999999 0.00109999999999999 0.0005500000000000124
10 3 0.9999999999999999 0.00109999999999999 0.0005500000000000124
11 3 0.9999999999999999 0.00109999999999999 0.0005500000000000124
12 3 0.9999999999999999 0.00109999999999999 0.0005500000000000124
13 3 0.9999999999999999 0.00109999999999999 0.0005500000000000124
14 3 0.9999999999999999 0.00109999999999999 0.0005500000000000124
15 3 0.9999999999999999 0.00109999999999999 0.0005500000000000124
16 3 0.9999999999999999 0.00109999999999999 0.0005500000000000124
17 3 0.9999999999999999 0.00109999999999999 0.0005500000000000124
18 3 0.9999999999999999 0.00109999999999999 0.0005500000000000124
19 3 0.9999999999999999 0.00109999999999999 0.0005500000000000124
20 3 0.9999999999999999 0.00109999999999999 0.0005500000000000124
21 3 0.9999999999999999 0.00109999999999999 0.0005500000000000124
22 3 0.9999999999999999 0.00109999999999999 0.0005500000000000124
23 3 0.9999999999999999 0.00109999999999999 0.0005500000000000124
24 3 0.9999999999999999 0.00109999999999999 0.0005500000000000124
25 3 0.9999999999999999 0.00109999999999999 0.0005500000000000124
26 3 0.9999999999999999 0.00109999999999999 0.0005500000000000124
27 3 0.9999999999999999 0.00109999999999999 0.0005500000000000124
28 3 0.9999999999999999 0.00109999999999999 0.0005500000000000124
29 3 0.9999999999999999 0.00109999999999999 0.0005500000000000124
30 3 0.9999999999999999 0.00109999999999999 0.0005500000000000124
31 3 0.9999999999999999 0.00109999999999999 0.0005500000000000124
32 3 0.9999999999999999 0.00109999999999999 0.0005500000000000124
33 3 0.9999999999999999 0.00109999999999999 0.0005500000000000124
34 3 0.9999999999999999 0.00109999999999999 0.0005500000000000124
35 3 0.9999999999999999 0.00109999999999999 0.0005500000000000124
36 3 0.9999999999999999 0.00109999999999999 0.0005500000000000124
37 3 0.9999999999999999 0.00109999999999999 0.0005500000000000124
38 3 0.9999999999999999 0.00109999999999999 0.0005500000000000124
39 3 0.9999999999999999 0.00109999999999999 0.0005500000000000124
40 3 0.9999999999999999 0.00109999999999999 0.0005500000000000124
41 3 0.9999999999999999 0.00109999999999999 0.0005500000000000124
42 3 0.9999999999999999 0.00109999999999999 0.0005500000000000124
43 3 0.9999999999999999 0.00109999999999999 0.0005500000000000124
44 3 0.9999999999999999 0.00109999999999999 0.0005500000000000124
45 3 0.9999999999999999 0.00109999999999999 0.0005500000000000124
46 3 0.9999999999999999 0.00109999999999999 0.0005500000000000124
47 3 0.9999999999999999 0.00109999999999999 0.0005500000000000124
48 3 0.9999999999999999 0.00109999999999999 0.0005500000000000124
49 3 0.9999999999999999 0.00109999999999999 0.0005500000000000124
50 3 0.9999999999999999 0.00109999999999999 0.0005500000000000124
51 3 0.9999999999999999 0.00109999999999999 0.0005500000000000124
52 3 0.9999999999999999 0.00109999999999999 0.0005500000000000124
53 3 0.9999999999999999 0.00109999999999999 0.0005500000000000124
54 3 0.9999999999999999 0.00109999999999999 0.0005500000000000124
55 3 0.9999999999999999 0.00109999999999999 0.0005500000000000124
56 3 0.9999999999999999 0.00109999999999999 0.0005500000000000124
57 3 0.9999999999999999 0.00109999999999999 0.0005500000000000124
58 3 0.9999999999999999 0.00109999999999999 0.0005500000000000124
59 3 1.00055 0.0007329302217113806 3.4675398050608307e-18
0 4 0.99945 0.0007337368886220641 3.471356197862439e-18
1 4 0.9999999999999999 0.00109999999999999 0.0005500000000000124
2 4 0.9999999999999999 0.00109999999999999 0.0005500000000000124
3 4 0.9999999999999999 0.00109999999999999 0.0005500000000000124
4 4 0.9999999999999999 0.00109999999999999 0.0005500000000000124
5 4 0.9999999999999999 0.00109999999999999 0.0005500000000000124
6 4 0.9999999999999999 0.00109999999999999 0.0005500000000000124
7 4 0.9999999999999999 0.00109999999999999 0.0005500000000000124
8 4 0.9999999999999999 0.00109999999999999 0.0005500000000000124
9 4 0.9999999999999999 0.00109999999999999 0.0005500000000000124
10 4 0.9999999999999999 0.00109999999999999 0.0005500000000000124
11 4 0.9999999999999999 0.00109999999999999 0.0005500000000000124
12 4 0.9999999999999999 0.00109999999999999 0.0005500000000000124
13 4 0.9999999999999999 0.00109999999999999 0.0005500000000000124
14 4 0.9999999999999999 0.00109999999999999 0.0005500000000000124
15 4 0.9999999999999999 0.00109999999999999 0.0005500000000000124
16 4 0.9999999999999999 0.00109999999999999 0.0005500000000000124
17 4 0.9999999999999999 0.00109999999999999 0.0005500000000000124
18 4 0.9999999999999999 0.00109999999999999 0.0005500000000000124
19 4 0.9999999999999999 0.00109999999999999 0.0005500000000000124
20 4 0.9999999999999999 0.00109999999999999 0.0005500000000000124
21 4 0.9999999999999999 0.00109999999999999 0.0005500000000000124
22 4 0.9999999999999999 0.00109999999999999 0.0005500000000000124
23 4 0.9999999999999999 0.00109999999999999 0.0005500000000000124
24 4 0.9999999999999999 0.00109999999999999 0.0005500000000000124
25 4 0.9999999999999999 0.00109999999999999 0.0005500000000000124
26 4 0.9999999999999999 0.00109999999999999 0.0005500000000000124
27 4 0.9999999999999999 0.00109999999999999 0.0005500000000000124
28 4 0.9999999999999999 0.00109999999999999 0.0005500000000000124
29 4 0.9999999999999999 0.00109999999999999 0.0005500000000000124
30 4 0.9999999999999999 0.00109999999999999 0.0005500000000000124
31 4 0.9999999999999999 0.00109999999999999 0.0005500000000000124
32 4 0.9999999999999999 0.00109999999999999 0.0005500000000000124
33 4 0.9999999999999999 0.00109999999999999 0.0005500000000000124
34 4 0.9999999999999999 0.00109999999999999 0.0005500000000000124
35 4 0.9999999999999999 0.00109999999999999 0.0005500000000000124
36 4 0.9999999999999999 0.00109999999999999 0.0005500000000000124
37 4 0.9999999999999999 0.00109999999999999 0.0005500000000000124
38 4 0.9999999999999999 0.00109999999999999 0.0005500000000000124
39 4 0.9999999999999999 0.00109999999999999 0.0005500000000000124
40 4 0.9999999999999999 0.00109999999999999 0.0005500000000000124
41 4 0.9999999999999999 0.00109999999999999 0.0005500000000000124
42 4 0.9999999999999999 0.00109999999999999 0.0005500000000000124
43 4 0.9999999999999999 0.00109999999999999 0.0005500000000000124
44 4 0.9999999999999999 0.00109999999999999 0.0005500000000000124
45 4 0.9999999999999999 0.00109999999999999 0.0005500000000000124
46 4 0.9999999999999999 0.00109999999999999 0.0005500000000000124
47 4 0.9999999999999999 0.00109999999999999 0.0005500000000000124
48 4 0.9999999999999999 0.00109999999999999 0.0005500000000000124
49 4 0.9999999999999999 0.00109999999999999 0.0005500000000000124
50 4 0.9999999999999999 0.00109999999999999 0.0005500000000000124
51 4 0.9999999999999999 0.00109999999999999 0.0005500000000000124
52 4 0.9999999999999999 0.00109999999999999 0.0005500000000000124
53 4 0.9999999999999999 0.00109999999999999 0.0005500000000000124
54 4 0.9999999999999999 0.00109999999999999 0.0005500000000000124
55 4 0.9999999999999999 0.00109999999999999 0.0005500000000000124
56 4 0.9999999999999999 0.00109999999999999 0.0005500000000000124
57 4 0.9999999999999999 0.00109999999999999 0.0005500000000000124
58 4 0.9999999999999999 0.00109999999999999 0.0005500000000000124
59 4 1.00055 0.0007329302217113806 3.4675398050608307e-18
0 5 0.99945 0.0007337368886220641 3.471356197862439e-18
1 5 0.9999999999999999 0.00109999999999999 0.0005500000000000124
2 5 0.9999999999999999 0.00109999999999999 0.0005500000000000124
3 5 0.9999999999999999 0.00109999999999999 0.0005500000000000124
4 5 0.9999999999999999 0.00109999999999999 0.0005500000000000124
5 5 0.9999999999999999 0.00109999999999999 0.0005500000000000124
6 5 0.9999999999999999 0.00109999999999999 0.0005500000000000124
7 5 0.9999999999999999 0.00109999999999999 0.0005500000000000124
8 5 0.9999999999999999 0.00109999999999999 0.0005500000000000124
9 5 0.9999999999999999 0.00109999999999999 0.0005500000000000124
10 5 0.9999999999999999 0.00109999999999999 0.0005500000000000124
11 5 0.9999999999999999 0.00109999999999999 0.0005500000000000124
12 5 0.9999999999999999 0.00109999999999999 0.0005500000000000124
13 5 0.9999999999999999 0.00109999999999999 0.0005500000000000124
14 5 0.9999999999999999 0.00109999999999999 0.0005500000000000124
15 5 0.9999999999999999 0.00109999999999999 0.0005500000000000124
16 5 0.9999999999999999 0.00109999999999999 0.0005500000000000124
17 5 0.9999999999999999 0.00109999999999999 0.0005500000000000124
18 5 0.9999999999999999 0.00109999999999999 0.0005500000000000124
19 5 0.9999999999999999 0.00109999999999999 0.0005500000000000124
20 5 0.9999999999999999 0.00109999999999999 0.0005500000000000124
21 5 0.9999999999999999 0.00109999999999999 0.0005500000000000124
22 5 0.9999999999999999 0.00109999999999999 0.0005500000000000124
23 5 0.9999999999999999 0.00109999999999999 0.0005500000000000124
24 5 0.9999999999999999 0.00109999999999999 0.0005500000000000124
25 5 0.9999999999999999 0.00109999999999999 0.0005500000000000124
26 5 0.9999999999999999 0.00109999999999999 0.0005500000000000124
27 5 0.9999999999999999 0.00109999999999999 0.0005500000000000124
28 5 0.9999999999999999 0.00109999999999999 0.0005500000000000124
29 5 0.9999999999999999 0.00109999999999999 0.0005500000000000124
30 5 0.9999999999999999 0.00109999999999999 0.0005500000000000124
31 5 0.9999999999999999 0.00109999999999999 0.0005500000000000124
32 5 0.9999999999999999 0.00109999999999999 0.0005500000000000124
33 5 0.9999999999999999 0.00109999999999999 0.0005500000000000124
34 5 0.9999999999999999 0.00109999999999999 0.0005500000000000124
35 5 0.9999999999999999 0.00109999999999999 0.0005500000000000124
36 5 0.9999999999999999 0.00109999999999999 0.0005500000000000124
37 5 0.9999999999999999 0.00109999999999999 0.0005500000000000124
38 5 0.9999999999999999 0.00109999999999999 0.0005500000000000124
39 5 0.9999999999999999 0.00109999999999999 0.0005500000000000124
40 5 0.9999999999999999 0.00109999999999999 0.0005500000000000124
41 5 0.9999999999999999 0.00109999999999999 0.0005500000000000124
42 5 0.9999999999999999 0.00109999999999999 0.0005500000000000124
43 5 0.9999999999999999 0.00109999999999999 0.0005500000000000124
44 5 0.9999999999999999 0.00109999999999999 0.0005500000000000124
45 5 0.9999999999999999 0.00109999999999999 0.0005500000000000124
46 5 0.9999999999999999 0.00109999999999999 0.0005500000000000124
47 5 0.9999999999999999 0.00109999999999999 0.0005500000000000124
48 5 0.9999999999999999 0.00109999999999999 0.0005500000000000124
49 5 0.9999999999999999 0.00109999999999999 0.0005500000000000124
50 5 0.9999999999999999 0.00109999999999999 0.0005500000000000124
51 5 0.9999999999999999 0.00109999999999999 0.0005500000000000124
52 5 0.9999999999999999 0.00109999999999999 0.0005500000000000124
53 5 0.9999999999999999 0.00109999999999999 0.0005500000000000124
54 5 0.9999999999999999 0.00109999999999999 0.0005500000000000124
55 5 0.9999999999999999 0.00109999999999999 0.0005500000000000124
56 5 0.9999999999999999 0.00109999999999999 0.0005500000000000124
57 5 0.9999999999999999 0.00109999999999999 0.0005500000000000124
58 5 0.9999999999999999 0.00109999999999999 0.0005500000000000124
59 5 1.00055 0.0007329302217113806 3.4675398050608307e-18
0 6 0.99945 0.0007337368886220641 3.471356197862439e-18
1 6 0.9999999999999999 0.00109999999999999 0.0005500000000000124
2 6 0.9999999999999999 0.00109999999999999 0.0005500000000000124
3 6 0.9999999999999999 0.00109999999999999 0.0005500000000000124
4 6 0.9999999999999999 0.00109999999999999 0.0005500000000000124
5 6 0.9999999999999999 0.00109999999999999 0.0005500000000000124
6 6 0.9999999999999999 0.00109999999999999 0.0005500000000000124
7 6 0.9999999999999999 0.00109999999999999 0.0005500000000000124
8 6 0.9999999999999999 0.00109999999999999 0.0005500000000000124
9 6 0.9999999999999999 0.00109999999999999 0.0005500000000000124
10 6 0.9999999999999999 0.00109999999999999 0.0005500000000000124
11 6 0.9999999999999999 0.00109999999999999 0.0005500000000000124
12 6 0.9999999999999999 0.00109999999999999 0.0005500000000000124
13 6 0.9999999999999999 0.00109999999999999 0.0005500000000000124
14 6 0.9999999999999999 0.00109999999999999 0.0005500000000000124
15 6 0.9999999999999999 0.00109999999999999 0.0005500000000000124
16 6 0.9999999999999999 0.00109999999999999 0.0005500000000000124
17 6 0.9999999999999999 0.00109999999999999 0.0005500000000000124
18 6 0.9999999999999999 0.00109999999999999 0.0005500000000000124
19 6 0.9999999999999999 0.00109999999999999 0.0005500000000000124
20 6 0.9999999999999999 0.00109999999999999 0.0005500000000000124
21 6 0.9999999999999999 0.00109999999999999 0.0005500000000000124
22 6 0.9999999999999999 0.00109999999999999 0.0005500000000000124
23 6 0.9999999999999999 0.00109999999999999 0.0005500000000000124
24 6 0.9999999999999999 0.00109999999999999 0.0005500000000000124
25 6 0.9999999999999999 0.00109999999999999 0.0005500000000000124
26 6 0.9999999999999999 0.00109999999999999 0.0005500000000000124
27 6 0.9999999999999999 0.00109999999999999 0.0005500000000000124
28 6 0.9999999999999999 0.00109999999999999 0.0005500000000000124
29 6 0.9999999999999999 0.00109999999999999 0.0005500000000000124
30 6 0.9999999999999999 0.00109999999999999 0.0005500000000000124
31 6 0.9999999999999999 0.00109999999999999 0.0005500000000000124
32 6 0.9999999999999999 0.00109999999999999 0.0005500000000000124
33 6 0.9999999999999999 0.00109999999999999 0.0005500000000000124
34 6 0.9999999999999999 0.00109999999999999 0.0005500000000000124
35 6 0.9999999999999999 0.00109999999999999 0.0005500000000000124
36 6 0.9999999999999999 0.00109999999999999 0.0005500000000000124
37 6 0.9999999999999999 0.00109999999999999 0.0005500000000000124
38 6 0.9999999999999999 0.00109999999999999 0.0005500000000000124
39 6 0.9999999999999999 0.00109999999999999 0.0005500000000000124
40 6 0.9999999999999999 0.00109999999999999 0.0005500000000000124
41 6 0.9999999999999999 0.00109999999999999 0.0005500000000000124
42 6 0.9999999999999999 0.00109999999999999 0.0005500000000000124
43 6 0.9999999999999999 0.00109999999999999 0.0005500000000000124
44 6 0.9999999999999999 0.00109999999999999 0.0005500000000000124
45 6 0.9999999999999999 0.00109999999999999 0.0005500000000000124
46 6 0.9999999999999999 0.00109999999999999 0.0005500000000000124
47 6 0.9999999999999999 0.00109999999999999 0.0005500000000000124
48 6 0.9999999999999999 0.00109999999999999 0.0005500000000000124
49 6 0.9999999999999999 0.00109999999999999 0.0005500000000000124
50 6 0.9999999999999999 0.00109999999999999 0.0005500000000000124
51 6 0.9999999999999999 0.00109999999999999 0.0005500000000000124
52 6 0.9999999999999999 0.00109999999999999 0.0005500000000000124
53 6 0.9999999999999999 0.00109999999999999 0.0005500000000000124
54 6 0.9999999999999999 0.00109999999999999 0.0005500000000000124
55 6 0.9999999999999999 0.00109999999999999 0.0005500000000000124
56 6 0.9999999999999999 0.00109999999999999 0.0005500000000000124
57 6 0.9999999999999999 0.00109999999999999 0.0005500000000000124
58 6 0.9999999999999999 0.00109999999999999 0.0005500000000000124
59 6 1.00055 0.0007329302217113806 3.4675398050608307e-18
0 7 0.99945 0.0007337368886220641 3.471356197862439e-18
1 7 0.9999999999999999 0.00109999999999999 0.0005500000000000124
2 7 0.9999999999999999 0.00109999999999999 0.0005500000000000124
3 7 0.9999999999999999 0.00109999999999999 0.0005500000000000124
4 7 0.9999999999999999 0.00109999999999999 0.0005500000000000124
5 7 0.9999999999999999 0.00109999999999999 0.0005500000000000124
6 7 0.9999999999999999 0.00109999999999999 0.0005500000000000124
7 7 0.9999999999999999 0.00109999999999999 0.0005500000000000124
8 7 0.9999999999999999 0.00109999999999999 0.0005500000000000124
9 7 0.9999999999999999 0.00109999999999999 0.0005500000000000124
10 7 0.9999999999999999 0.00109999999999999 0.0005500000000000124
11 7 0.9999999999999999 0.00109999999999999 0.0005500000000000124
12 7 0.9999999999999999 0.00109999999999999 0.0005500000000000124
13 7 0.9999999999999999 0.00109999999999999 0.0005500000000000124
14 7 0.9999999999999999 0.00109999999999999 0.0005500000000000124
15 7 0.9999999999999999 0.00109999999999999 0.0005500000000000124
16 7 0.9999999999999999 0.00109999999999999 0.0005500000000000124
17 7 0.9999999999999999 0.00109999999999999 0.0005500000000000124
18 7 0.9999999999999999 0.00109999999999999 0.0005500000000000124
19 7 0.9999999999999999 0.00109999999999999 0.0005500000000000124
20 7 0.9999999999999999 0.00109999999999999 0.0005500000000000124
21 7 0.9999999999999999 0.00109999999999999 0.0005500000000000124
22 7 0.9999999999999999 0.00109999999999999 0.0005500000000000124
23 7 0.9999999999999999 0.00109999999999999 0.0005500000000000124
24 7 0.9999999999999999 0.00109999999999999 0.0005500000000000124
25 7 0.9999999999999999 0.00109999999999999 0.0005500000000000124
26 7 0.9999999999999999 0.00109999999999999 0.0005500000000000124
27 7 0.9999999999999999 0.00109999999999999 0.0005500000000000124
28 7 0.9999999999999999 0.00109999999999999 0.0005500000000000124
29 7 0.9999999999999999 0.00109999999999999 0.0005500000000000124
30 7 0.9999999999999999 0.00109999999999999 0.0005500000000000124
31 7 0.9999999999999999 0.00109999999999999 0.0005500000000000124
32 7 0.9999999999999999 0.00109999999999999 0.0005500000000000124
33 7 0.9999999999999999 0.00109999999999999 0.0005500000000000124
34 7 0.9999999999999999 0.00109999999999999 0.0005500000000000124
35 7 0.9999999999999999 0.00109999999999999 0.0005500000000000124